# vtk DataFile Version 3.0
testMesh_finale
ASCII
DATASET UNSTRUCTURED_GRID
POINTS 119 float
0.00000e+00 0.00000e+00 0.00000e+00
2.00000e-01 0.00000e+00 0.00000e+00
4.00000e-01 0.00000e+00 0.00000e+00
6.00000e-01 0.00000e+00 0.00000e+00
8.00000e-01 0.00000e+00 0.00000e+00
1.00000e+00 0.00000e+00 0.00000e+00
1.00000e+00 2.00000e-01 0.00000e+00
1.00000e+00 4.00000e-01 0.00000e+00
1.00000e+00 6.00000e-01 0.00000e+00
1.00000e+00 8.00000e-01 0.00000e+00
1.00000e+00 1.00000e+00 0.00000e+00
8.00000e-01 1.00000e+00 0.00000e+00
6.00000e-01 1.00000e+00 0.00000e+00
4.00000e-01 1.00000e+00 0.00000e+00
2.00000e-01 1.00000e+00 0.00000e+00
0.00000e+00 1.00000e+00 0.00000e+00
0.00000e+00 8.00000e-01 0.00000e+00
0.00000e+00 6.00000e-01 0.00000e+00
0.00000e+00 4.00000e-01 0.00000e+00
0.00000e+00 2.00000e-01 0.00000e+00
3.00000e-01 1.73205e-01 0.00000e+00
5.08433e-01 1.87811e-01 0.00000e+00
7.15684e-01 1.85103e-01 0.00000e+00
8.33566e-01 3.57942e-01 0.00000e+00
8.48443e-01 5.18022e-01 0.00000e+00
7.02371e-01 4.50866e-01 0.00000e+00
6.51816e-01 3.25247e-01 0.00000e+00
5.68305e-01 4.31838e-01 0.00000e+00
4.83508e-01 3.37216e-01 0.00000e+00
4.43961e-01 4.57964e-01 0.00000e+00
2.94444e-01 3.88011e-01 0.00000e+00
5.28758e-01 5.52585e-01 0.00000e+00
4.04415e-01 5.78711e-01 0.00000e+00
6.39875e-01 5.46848e-01 0.00000e+00
5.89285e-01 6.45947e-01 0.00000e+00
4.82985e-01 6.62605e-01 0.00000e+00
5.50562e-01 7.46334e-01 0.00000e+00
4.44262e-01 7.62993e-01 0.00000e+00
6.56862e-01 7.29676e-01 0.00000e+00
3.71783e-01 6.84250e-01 0.00000e+00
3.39830e-01 7.86390e-01 0.00000e+00
2.67352e-01 7.07648e-01 0.00000e+00
4.12308e-01 8.65132e-01 0.00000e+00
2.96128e-01 6.02332e-01 0.00000e+00
2.35398e-01 8.09787e-01 0.00000e+00
3.07877e-01 8.88529e-01 0.00000e+00
5.14333e-01 8.44265e-01 0.00000e+00
4.81392e-01 9.43055e-01 0.00000e+00
3.79847e-01 9.65597e-01 0.00000e+00
4.50141e-01 1.04227e+00 0.00000e+00
3.48596e-01 1.06481e+00 0.00000e+00
5.51687e-01 1.01972e+00 0.00000e+00
2.77453e-01 9.88820e-01 0.00000e+00
4.18891e-01 1.14148e+00 0.00000e+00
5.20436e-01 1.11894e+00 0.00000e+00
5.83226e-01 9.21339e-01 0.00000e+00
6.52661e-01 9.97846e-01 0.00000e+00
6.21551e-01 1.09631e+00 0.00000e+00
7.22381e-01 1.07402e+00 0.00000e+00
6.91271e-01 1.17249e+00 0.00000e+00
7.53491e-01 9.75554e-01 0.00000e+00
5.90493e-01 1.19505e+00 0.00000e+00
7.92102e-01 1.15020e+00 0.00000e+00
8.23212e-01 1.05173e+00 0.00000e+00
6.83989e-01 8.99410e-01 0.00000e+00
7.84683e-01 8.77291e-01 0.00000e+00
8.54254e-01 9.53349e-01 0.00000e+00
8.85336e-01 8.55070e-01 0.00000e+00
9.54907e-01 9.31128e-01 0.00000e+00
8.15766e-01 7.79012e-01 0.00000e+00
9.23890e-01 1.02943e+00 0.00000e+00
1.02453e+00 1.00714e+00 0.00000e+00
9.93512e-01 1.10544e+00 0.00000e+00
1.05555e+00 9.08839e-01 0.00000e+00
8.92862e-01 1.12777e+00 0.00000e+00
1.09415e+00 1.08315e+00 0.00000e+00
1.12517e+00 9.84850e-01 0.00000e+00
9.85957e-01 8.32839e-01 0.00000e+00
1.08657e+00 8.10574e-01 0.00000e+00
1.15617e+00 8.86563e-01 0.00000e+00
1.18718e+00 7.88292e-01 0.00000e+00
1.25678e+00 8.64281e-01 0.00000e+00
1.11758e+00 7.12303e-01 0.00000e+00
1.22578e+00 9.62556e-01 0.00000e+00
1.28779e+00 7.66010e-01 0.00000e+00
1.21819e+00 6.90021e-01 0.00000e+00
1.01697e+00 7.34579e-01 0.00000e+00
1.04798e+00 6.36316e-01 0.00000e+00
1.14859e+00 6.14036e-01 0.00000e+00
1.07899e+00 5.38052e-01 0.00000e+00
1.17959e+00 5.15772e-01 0.00000e+00
9.78388e-01 5.60333e-01 0.00000e+00
1.24919e+00 5.91754e-01 0.00000e+00
1.11000e+00 4.39789e-01 0.00000e+00
1.00939e+00 4.62069e-01 0.00000e+00
9.47382e-01 6.58594e-01 0.00000e+00
8.77788e-01 5.82611e-01 0.00000e+00
9.08793e-01 4.84349e-01 0.00000e+00
8.08193e-01 5.06629e-01 0.00000e+00
8.39198e-01 4.08367e-01 0.00000e+00
7.77188e-01 6.04891e-01 0.00000e+00
9.39798e-01 3.86087e-01 0.00000e+00
7.38598e-01 4.30647e-01 0.00000e+00
7.07593e-01 5.28909e-01 0.00000e+00
8.46783e-01 6.80873e-01 0.00000e+00
7.46183e-01 7.03153e-01 0.00000e+00
9.16375e-01 7.56856e-01 0.00000e+00
8.15776e-01 7.79111e-01 0.00000e+00
7.84773e-01 8.77332e-01 0.00000e+00
7.15202e-01 8.01387e-01 0.00000e+00
6.84218e-01 8.99610e-01 0.00000e+00
6.14647e-01 8.23665e-01 0.00000e+00
7.53789e-01 9.75554e-01 0.00000e+00
6.45621e-01 7.25437e-01 0.00000e+00
5.83662e-01 9.21888e-01 0.00000e+00
6.53233e-01 9.97833e-01 0.00000e+00
8.54348e-01 9.53293e-01 0.00000e+00
8.23347e-01 1.05151e+00 0.00000e+00
7.22796e-01 1.07377e+00 0.00000e+00

CELLS 158 632
3 0 1 19
3 5 6 4
3 10 11 9
3 15 16 14
3 1 2 20
3 1 20 19
3 20 2 21
3 2 3 21
3 21 3 22
3 3 4 22
3 4 6 22
3 22 6 23
3 6 7 23
3 23 7 24
3 7 8 24
3 23 24 25
3 22 23 26
3 23 25 26
3 22 26 21
3 26 25 27
3 21 26 28
3 26 27 28
3 21 28 20
3 28 27 29
3 20 28 30
3 28 29 30
3 20 30 19
3 19 30 18
3 29 27 31
3 29 31 32
3 31 27 33
3 27 25 33
3 31 33 34
3 32 31 35
3 31 34 35
3 35 34 36
3 35 36 37
3 36 34 38
3 32 35 39
3 35 37 39
3 39 37 40
3 39 40 41
3 40 37 42
3 32 39 43
3 39 41 43
3 41 40 44
3 40 42 45
3 40 45 44
3 42 37 46
3 37 36 46
3 42 46 47
3 45 42 48
3 42 47 48
3 48 47 49
3 48 49 50
3 49 47 51
3 45 48 52
3 48 50 52
3 50 49 53
3 53 49 54
3 49 51 54
3 51 47 55
3 47 46 55
3 51 55 56
3 54 51 57
3 51 56 57
3 57 56 58
3 57 58 59
3 58 56 60
3 54 57 61
3 57 59 61
3 59 58 62
3 58 60 63
3 58 63 62
3 60 56 64
3 56 55 64
3 60 64 65
3 63 60 66
3 60 65 66
3 66 65 67
3 66 67 68
3 67 65 69
3 63 66 70
3 66 68 70
3 70 68 71
3 70 71 72
3 71 68 73
3 63 70 74
3 70 72 74
3 63 74 62
3 72 71 75
3 75 71 76
3 71 73 76
3 73 68 77
3 68 67 77
3 73 77 78
3 76 73 79
3 73 78 79
3 79 78 80
3 79 80 81
3 80 78 82
3 76 79 83
3 79 81 83
3 81 80 84
3 84 80 85
3 80 82 85
3 82 78 86
3 78 77 86
3 82 86 87
3 85 82 88
3 82 87 88
3 88 87 89
3 88 89 90
3 89 87 91
3 85 88 92
3 88 90 92
3 90 89 93
3 93 89 94
3 89 91 94
3 91 87 95
3 87 86 95
3 91 95 96
3 94 91 97
3 91 96 97
3 97 96 98
3 97 98 99
3 98 96 100
3 94 97 101
3 97 99 101
3 99 98 102
3 102 98 103
3 98 100 103
3 100 96 104
3 96 95 104
3 100 104 105
3 104 95 106
3 95 86 106
3 86 77 106
3 77 67 106
3 104 106 107
3 106 67 107
3 104 107 105
3 107 67 108
3 105 107 109
3 107 108 109
3 109 108 110
3 109 110 111
3 110 108 112
3 105 109 113
3 109 111 113
3 111 110 114
3 110 112 115
3 110 115 114
3 112 108 116
3 108 67 116
3 112 116 117
3 115 112 118
3 112 117 118

CELL_TYPES 158
5
5
5
5
5
5
5
5
5
5
5
5
5
5
5
5
5
5
5
5
5
5
5
5
5
5
5
5
5
5
5
5
5
5
5
5
5
5
5
5
5
5
5
5
5
5
5
5
5
5
5
5
5
5
5
5
5
5
5
5
5
5
5
5
5
5
5
5
5
5
5
5
5
5
5
5
5
5
5
5
5
5
5
5
5
5
5
5
5
5
5
5
5
5
5
5
5
5
5
5
5
5
5
5
5
5
5
5
5
5
5
5
5
5
5
5
5
5
5
5
5
5
5
5
5
5
5
5
5
5
5
5
5
5
5
5
5
5
5
5
5
5
5
5
5
5
5
5
5
5
5
5
5
5
5
5
5
5

CELL_DATA 158
SCALARS INSIDE float
LOOKUP_TABLE default 
0
1
2
3
4
5
6
7
8
9
10
11
12
13
14
15
16
17
18
19
20
21
22
23
24
25
26
27
28
29
30
31
32
33
34
35
36
37
38
39
40
41
42
43
44
45
46
47
48
49
50
51
52
53
54
55
56
57
58
59
60
61
62
63
64
65
66
67
68
69
70
71
72
73
74
75
76
77
78
79
80
81
82
83
84
85
86
87
88
89
90
91
92
93
94
95
96
97
98
99
100
101
102
103
104
105
106
107
108
109
110
111
112
113
114
115
116
117
118
119
120
121
122
123
124
125
126
127
128
129
130
131
132
133
134
135
136
137
138
139
140
141
142
143
144
145
146
147
148
149
150
151
152
153
154
155
156
157
